<?xml version="1.0" encoding="UTF-8"?>

<!-- generated on 2022-12-09 13:01:37 by Eclipse SUMO GUI Version 1.15.0
<configuration xmlns:xsi="http://www.w3.org/2001/XMLSchema-instance" xsi:noNamespaceSchemaLocation="http://sumo.dlr.de/xsd/sumoConfiguration.xsd">

    <input>
        <net-file value="./2_1_merge.net.xml"/>
        <route-files value="./improved_2_1_merge.rou.xml"/>
        <additional-files value="./additional.xml"/>
    </input>

    <emissions>
        <phemlight-path value="SUMO_HOME\data\emissions\PHEMlight&gt;"/>
        <device.emissions.probability value="1.0"/>
        <device.emissions.explicit value="PHEMlight/PC_G_EU4"/>
        <device.emissions.deterministic value="true"/>
    </emissions>

    <traci_server>
        <remote-port value="56921"/>
    </traci_server>

    <gui_only>
        <quit-on-end value="true"/>
        <start value="true"/>
    </gui_only>

</configuration>
-->

<meandata xmlns:xsi="http://www.w3.org/2001/XMLSchema-instance" xsi:noNamespaceSchemaLocation="http://sumo.dlr.de/xsd/meandata_file.xsd">
    <interval begin="0.00" end="3600.00" id="EMISSIONS_DETECTOR_ID_1">
        <edge id="seg_0_after" sampledSeconds="40658.48" CO_abs="3212081.357373" CO2_abs="253879379.136838" HC_abs="20959.639391" PMx_abs="5293.594862" NOx_abs="93725.431954" fuel_abs="80975675.842428" electricity_abs="0"
            CO_normed="6424.162715" CO2_normed="507758.758274" HC_normed="41.919279" PMx_normed="10.587190" NOx_normed="187.450864" fuel_normed="161951.351685" electricity_normed="0"
            traveltime="19.63" CO_perVeh="1551.152672" CO2_perVeh="122601.401848" HC_perVeh="10.121662" PMx_perVeh="2.556341" NOx_perVeh="45.261137" fuel_perVeh="39104.126564" electricity_perVeh="0"/>
        <edge id="seg_0_before" sampledSeconds="47542.32" CO_abs="3655326.560769" CO2_abs="167514906.436385" HC_abs="20670.690546" PMx_abs="3247.985518" NOx_abs="64389.329457" fuel_abs="53430373.215650" electricity_abs="0"
            CO_normed="13292.096585" CO2_normed="609145.114314" HC_normed="75.166147" PMx_normed="11.810856" NOx_normed="234.143016" fuel_normed="194292.266239" electricity_normed="0"
            traveltime="22.71" CO_perVeh="1745.759945" CO2_perVeh="80004.018507" HC_perVeh="9.872186" PMx_perVeh="1.551217" NOx_perVeh="30.751921" fuel_perVeh="25517.995136" electricity_perVeh="0"/>
        <edge id="seg_10_before" sampledSeconds="68836.61" CO_abs="7256208.955342" CO2_abs="460953924.309374" HC_abs="44862.111590" PMx_abs="10664.600031" NOx_abs="166294.972455" fuel_abs="147023330.026780" electricity_abs="0"
            CO_normed="7256.208955" CO2_normed="460953.924309" HC_normed="44.862112" PMx_normed="10.664600" NOx_normed="166.294972" fuel_normed="147023.330027" electricity_normed="0"
            traveltime="32.91" CO_perVeh="3469.629466" CO2_perVeh="220409.766042" HC_perVeh="21.451271" PMx_perVeh="5.099386" NOx_perVeh="79.515618" fuel_perVeh="70300.687476" electricity_perVeh="0"/>
        <edge id="seg_1_after" sampledSeconds="69509.24" CO_abs="6155804.912715" CO2_abs="431956292.994019" HC_abs="38990.424581" PMx_abs="9632.155546" NOx_abs="154103.452193" fuel_abs="137774346.239058" electricity_abs="0"
            CO_normed="6155.804913" CO2_normed="431956.292994" HC_normed="38.990425" PMx_normed="9.632156" NOx_normed="154.103452" fuel_normed="137774.346239" electricity_normed="0"
            traveltime="33.92" CO_perVeh="3003.716740" CO2_perVeh="210772.493070" HC_perVeh="19.025325" PMx_perVeh="4.699997" NOx_perVeh="75.194573" fuel_perVeh="67226.807223" electricity_perVeh="0"/>
        <edge id="seg_1_before" sampledSeconds="63784.10" CO_abs="5130736.257884" CO2_abs="197986102.898446" HC_abs="28102.618252" PMx_abs="3959.631117" NOx_abs="78222.519245" fuel_abs="63149707.937353" electricity_abs="0"
            CO_normed="17102.454193" CO2_normed="659953.676328" HC_normed="93.675394" PMx_normed="13.198770" NOx_normed="260.741731" fuel_normed="210499.026458" electricity_normed="0"
            traveltime="30.45" CO_perVeh="2449.162363" CO2_perVeh="94508.875011" HC_perVeh="13.414814" PMx_perVeh="1.890134" NOx_perVeh="37.339602" fuel_perVeh="30144.579680" electricity_perVeh="0"/>
        <edge id="seg_2_before" sampledSeconds="98808.48" CO_abs="6820368.466372" CO2_abs="272141641.189476" HC_abs="37524.642074" PMx_abs="5249.429947" NOx_abs="104323.814918" fuel_abs="86802591.183618" electricity_abs="0"
            CO_normed="13640.736933" CO2_normed="544283.282379" HC_normed="75.049284" PMx_normed="10.498860" NOx_normed="208.647630" fuel_normed="173605.182367" electricity_normed="0"
            traveltime="47.41" CO_perVeh="3272.519934" CO2_perVeh="130577.834625" HC_perVeh="18.004913" PMx_perVeh="2.518759" NOx_perVeh="50.056205" fuel_perVeh="41649.246867" electricity_perVeh="0"/>
        <edge id="seg_3_before" sampledSeconds="88772.69" CO_abs="6484236.234212" CO2_abs="253496505.023769" HC_abs="35623.416192" PMx_abs="5139.845308" NOx_abs="96148.565781" fuel_abs="80855518.133734" electricity_abs="0"
            CO_normed="12968.472468" CO2_normed="506993.010048" HC_normed="71.246832" PMx_normed="10.279691" NOx_normed="192.297132" fuel_normed="161711.036267" electricity_normed="0"
            traveltime="42.48" CO_perVeh="3102.897177" CO2_perVeh="121305.510987" HC_perVeh="17.046849" PMx_perVeh="2.459567" NOx_perVeh="46.009908" fuel_perVeh="38691.736371" electricity_perVeh="0"/>
        <edge id="seg_4_before" sampledSeconds="71876.30" CO_abs="5574428.105545" CO2_abs="239412336.347730" HC_abs="31265.373411" PMx_abs="5096.810450" NOx_abs="88999.905610" fuel_abs="76362855.732393" electricity_abs="0"
            CO_normed="11148.856211" CO2_normed="478824.672695" HC_normed="62.530747" PMx_normed="10.193621" NOx_normed="177.999811" fuel_normed="152725.711465" electricity_normed="0"
            traveltime="34.26" CO_perVeh="2656.893294" CO2_perVeh="114109.110212" HC_perVeh="14.901755" PMx_perVeh="2.429250" NOx_perVeh="42.419285" fuel_perVeh="36396.192668" electricity_perVeh="0"/>
        <edge id="seg_5_before" sampledSeconds="37884.30" CO_abs="3166208.389029" CO2_abs="200496137.312337" HC_abs="19524.952069" PMx_abs="4547.043395" NOx_abs="70372.663072" fuel_abs="63949351.787672" electricity_abs="0"
            CO_normed="6332.416778" CO2_normed="400992.274625" HC_normed="39.049904" PMx_normed="9.094087" NOx_normed="140.745326" fuel_normed="127898.703575" electricity_normed="0"
            traveltime="18.00" CO_perVeh="1504.137087" CO2_perVeh="95247.576563" HC_perVeh="9.275512" PMx_perVeh="2.160116" NOx_perVeh="33.431196" fuel_perVeh="30379.741287" electricity_perVeh="0"/>
        <edge id="seg_6_before" sampledSeconds="34615.71" CO_abs="3380028.159948" CO2_abs="215960219.031565" HC_abs="20940.929928" PMx_abs="4977.880204" NOx_abs="76131.248953" fuel_abs="68881618.636142" electricity_abs="0"
            CO_normed="6760.056320" CO2_normed="431920.438063" HC_normed="41.881860" PMx_normed="9.955760" NOx_normed="152.262498" fuel_normed="137763.237272" electricity_normed="0"
            traveltime="16.40" CO_perVeh="1601.758458" CO2_perVeh="102341.190980" HC_perVeh="9.923678" PMx_perVeh="2.358963" NOx_perVeh="36.077768" fuel_perVeh="32642.247352" electricity_perVeh="0"/>
        <edge id="seg_7_before" sampledSeconds="34791.46" CO_abs="3367745.690810" CO2_abs="216131330.490689" HC_abs="20885.968571" PMx_abs="4972.665766" NOx_abs="76046.880894" fuel_abs="68936201.840523" electricity_abs="0"
            CO_normed="6735.491382" CO2_normed="432262.660981" HC_normed="41.771937" PMx_normed="9.945332" NOx_normed="152.093762" fuel_normed="137872.403681" electricity_normed="0"
            traveltime="16.43" CO_perVeh="1590.180050" CO2_perVeh="102052.756181" HC_perVeh="9.861924" PMx_perVeh="2.347990" NOx_perVeh="35.907769" fuel_perVeh="32550.252583" electricity_perVeh="0"/>
        <edge id="seg_8_before" sampledSeconds="34679.81" CO_abs="3323018.686937" CO2_abs="213034109.557103" HC_abs="20609.635131" PMx_abs="4905.877573" NOx_abs="74536.588805" fuel_abs="67948359.762269" electricity_abs="0"
            CO_normed="6646.037374" CO2_normed="426068.219114" HC_normed="41.219270" PMx_normed="9.811755" NOx_normed="149.073178" fuel_normed="135896.719525" electricity_normed="0"
            traveltime="16.33" CO_perVeh="1564.943587" CO2_perVeh="100326.358315" HC_perVeh="9.705909" PMx_perVeh="2.310376" NOx_perVeh="35.102287" fuel_perVeh="31999.624392" electricity_perVeh="0"/>
        <edge id="seg_9_before" sampledSeconds="34608.48" CO_abs="3413878.092806" CO2_abs="216241395.489942" HC_abs="21118.538121" PMx_abs="5006.469012" NOx_abs="75911.378880" fuel_abs="68971332.805043" electricity_abs="0"
            CO_normed="6827.756186" CO2_normed="432482.790980" HC_normed="42.237076" PMx_normed="10.012938" NOx_normed="151.822758" fuel_normed="137942.665610" electricity_normed="0"
            traveltime="16.24" CO_perVeh="1602.303160" CO2_perVeh="101492.865838" HC_perVeh="9.911983" PMx_perVeh="2.349785" NOx_perVeh="35.628994" fuel_perVeh="32371.684483" electricity_perVeh="0"/>
    </interval>
</meandata>
