<?xml version="1.0" encoding="UTF-8"?>

<!-- generated on 2022-12-07 13:34:41 by Eclipse SUMO GUI Version 1.15.0
<configuration xmlns:xsi="http://www.w3.org/2001/XMLSchema-instance" xsi:noNamespaceSchemaLocation="http://sumo.dlr.de/xsd/sumoConfiguration.xsd">

    <input>
        <net-file value="./2_1_merge.net.xml"/>
        <route-files value="./improved_2_1_merge.rou.xml"/>
        <additional-files value="./additional.xml"/>
    </input>

    <emissions>
        <phemlight-path value="SUMO_HOME\data\emissions\PHEMlight&gt;"/>
        <device.emissions.probability value="1.0"/>
        <device.emissions.explicit value="PHEMlight/PC_G_EU4"/>
        <device.emissions.deterministic value="true"/>
    </emissions>

    <traci_server>
        <remote-port value="53249"/>
    </traci_server>

    <gui_only>
        <gui-settings-file value="view.view.xml"/>
        <start value="true"/>
    </gui_only>

</configuration>
-->

<meandata xmlns:xsi="http://www.w3.org/2001/XMLSchema-instance" xsi:noNamespaceSchemaLocation="http://sumo.dlr.de/xsd/meandata_file.xsd">
    <interval begin="0.00" end="3850.00" id="EMISSIONS_DETECTOR_ID_1">
        <edge id="seg_0_after" sampledSeconds="43616.90" CO_abs="2288112.684053" CO2_abs="203792021.925892" HC_abs="15316.595495" PMx_abs="4022.461691" NOx_abs="72982.701302" fuel_abs="65000230.560149" electricity_abs="0"
            CO_normed="4279.067877" CO2_normed="381117.547498" HC_normed="28.644023" PMx_normed="7.522526" NOx_normed="136.487130" fuel_normed="121558.872736" electricity_normed="0"
            traveltime="20.32" CO_perVeh="1066.101580" CO2_perVeh="94952.926973" HC_perVeh="7.136470" PMx_perVeh="1.874188" NOx_perVeh="34.004869" fuel_perVeh="30285.592573" electricity_perVeh="0"/>
        <edge id="seg_0_before" sampledSeconds="42941.15" CO_abs="3512517.071142" CO2_abs="161619965.099340" HC_abs="19872.663067" PMx_abs="3236.831820" NOx_abs="61426.840564" fuel_abs="51550095.083281" electricity_abs="0"
            CO_normed="11943.387444" CO2_normed="549546.044257" HC_normed="67.571747" PMx_normed="11.005992" NOx_normed="208.865762" fuel_normed="175282.495679" electricity_normed="0"
            traveltime="19.85" CO_perVeh="1623.453352" CO2_perVeh="74699.273691" HC_perVeh="9.184964" PMx_perVeh="1.496034" NOx_perVeh="28.390925" fuel_perVeh="23825.983746" electricity_perVeh="0"/>
        <edge id="seg_10_before" sampledSeconds="68670.43" CO_abs="7314627.872525" CO2_abs="462013177.301965" HC_abs="45173.895470" PMx_abs="10718.756347" NOx_abs="166570.610930" fuel_abs="147361201.899002" electricity_abs="0"
            CO_normed="6839.652037" CO2_normed="432012.321633" HC_normed="42.240526" PMx_normed="10.022733" NOx_normed="155.754337" fuel_normed="137792.292685" electricity_normed="0"
            traveltime="32.76" CO_perVeh="3489.376544" CO2_perVeh="220399.174386" HC_perVeh="21.549795" PMx_perVeh="5.113285" NOx_perVeh="79.460991" fuel_perVeh="70297.317978" electricity_perVeh="0"/>
        <edge id="seg_1_after" sampledSeconds="75756.08" CO_abs="7602901.583162" CO2_abs="541533763.550863" HC_abs="48283.707543" PMx_abs="11996.823085" NOx_abs="202202.134932" fuel_abs="172723856.474015" electricity_abs="0"
            CO_normed="7109.206675" CO2_normed="506369.233450" HC_normed="45.148402" PMx_normed="11.217809" NOx_normed="189.072126" fuel_normed="161508.021638" electricity_normed="0"
            traveltime="35.49" CO_perVeh="3561.520787" CO2_perVeh="253677.327608" HC_perVeh="22.618132" PMx_perVeh="5.619820" NOx_perVeh="94.720035" fuel_perVeh="80911.162468" electricity_perVeh="0"/>
        <edge id="seg_1_before" sampledSeconds="58009.06" CO_abs="4830251.866309" CO2_abs="187420276.102612" HC_abs="26481.354622" PMx_abs="3761.436175" NOx_abs="72387.898654" fuel_abs="59779723.013127" electricity_abs="0"
            CO_normed="15055.330492" CO2_normed="584167.094346" HC_normed="82.539287" PMx_normed="11.723957" NOx_normed="225.624619" fuel_normed="186326.409392" electricity_normed="0"
            traveltime="26.85" CO_perVeh="2235.796526" CO2_perVeh="86751.915585" HC_perVeh="12.257522" PMx_perVeh="1.741070" NOx_perVeh="33.506454" fuel_perVeh="27670.461235" electricity_perVeh="0"/>
        <edge id="seg_2_before" sampledSeconds="93256.67" CO_abs="6766072.002320" CO2_abs="276204834.378603" HC_abs="37418.006931" PMx_abs="5423.879027" NOx_abs="105086.872631" fuel_abs="88098493.960328" electricity_abs="0"
            CO_normed="12653.433355" CO2_normed="516538.911046" HC_normed="69.976532" PMx_normed="10.143358" NOx_normed="196.526099" fuel_normed="164755.625069" electricity_normed="0"
            traveltime="43.45" CO_perVeh="3152.540574" CO2_perVeh="128693.124591" HC_perVeh="17.434308" PMx_perVeh="2.527168" NOx_perVeh="48.963509" fuel_perVeh="41048.052200" electricity_perVeh="0"/>
        <edge id="seg_3_before" sampledSeconds="79706.81" CO_abs="5370005.910288" CO2_abs="241453407.866406" HC_abs="30322.301094" PMx_abs="4864.012504" NOx_abs="89758.734339" fuel_abs="77013895.656924" electricity_abs="0"
            CO_normed="10042.608456" CO2_normed="451549.230296" HC_normed="56.706641" PMx_normed="9.096335" NOx_normed="167.860490" fuel_normed="144025.986683" electricity_normed="0"
            traveltime="37.14" CO_perVeh="2502.061722" CO2_perVeh="112501.054857" HC_perVeh="14.128154" PMx_perVeh="2.266303" NOx_perVeh="41.821536" fuel_perVeh="35883.297637" electricity_perVeh="0"/>
        <edge id="seg_4_before" sampledSeconds="55936.33" CO_abs="3869777.555915" CO2_abs="212876363.082578" HC_abs="22948.447115" PMx_abs="4556.616886" NOx_abs="76343.634809" fuel_abs="67898469.742644" electricity_abs="0"
            CO_normed="7236.986598" CO2_normed="398106.445245" HC_normed="42.916576" PMx_normed="8.521465" NOx_normed="142.772512" fuel_normed="126978.956402" electricity_normed="0"
            traveltime="26.06" CO_perVeh="1803.042369" CO2_perVeh="99185.313977" HC_perVeh="10.692352" PMx_perVeh="2.123061" NOx_perVeh="35.570729" fuel_perVeh="31635.879825" electricity_perVeh="0"/>
        <edge id="seg_5_before" sampledSeconds="39437.88" CO_abs="3597985.184002" CO2_abs="216692088.996252" HC_abs="21949.184154" PMx_abs="4989.759289" NOx_abs="77268.486376" fuel_abs="69115123.129494" electricity_abs="0"
            CO_normed="6728.699565" CO2_normed="405242.348253" HC_normed="41.047825" PMx_normed="9.331498" NOx_normed="144.502104" fuel_normed="129254.256242" electricity_normed="0"
            traveltime="18.38" CO_perVeh="1676.405494" CO2_perVeh="100963.119590" HC_perVeh="10.226761" PMx_perVeh="2.324873" NOx_perVeh="36.001625" fuel_perVeh="32202.737416" electricity_perVeh="0"/>
        <edge id="seg_6_before" sampledSeconds="39853.82" CO_abs="4514986.216893" CO2_abs="323296965.142390" HC_abs="28667.378015" PMx_abs="7149.967512" NOx_abs="125387.170214" fuel_abs="103116196.209089" electricity_abs="0"
            CO_normed="8443.610587" CO2_normed="604607.311435" HC_normed="53.611720" PMx_normed="13.371368" NOx_normed="234.490292" fuel_normed="192840.678625" electricity_normed="0"
            traveltime="18.57" CO_perVeh="2103.771394" CO2_perVeh="150641.192343" HC_perVeh="13.357651" PMx_perVeh="3.331549" NOx_perVeh="58.424529" fuel_perVeh="48047.301465" electricity_perVeh="0"/>
        <edge id="seg_7_before" sampledSeconds="41704.48" CO_abs="3596431.276466" CO2_abs="275216468.605820" HC_abs="23201.525082" PMx_abs="5916.220429" NOx_abs="106220.828346" fuel_abs="87780807.288621" electricity_abs="0"
            CO_normed="6725.793556" CO2_normed="514690.538691" HC_normed="43.389865" PMx_normed="11.064101" NOx_normed="198.646744" fuel_normed="164161.509735" electricity_normed="0"
            traveltime="19.43" CO_perVeh="1675.702979" CO2_perVeh="128232.967875" HC_perVeh="10.810401" PMx_perVeh="2.756574" NOx_perVeh="49.491995" fuel_perVeh="40900.144886" electricity_perVeh="0"/>
        <edge id="seg_8_before" sampledSeconds="36497.34" CO_abs="2729053.842555" CO2_abs="178800573.297943" HC_abs="16992.762004" PMx_abs="4070.598160" NOx_abs="62390.857206" fuel_abs="57029388.869654" electricity_abs="0"
            CO_normed="5103.685108" CO2_normed="334380.292921" HC_normed="31.778672" PMx_normed="7.612547" NOx_normed="116.679006" fuel_normed="106652.363600" electricity_normed="0"
            traveltime="17.01" CO_perVeh="1271.550102" CO2_perVeh="83308.685141" HC_perVeh="7.917450" PMx_perVeh="1.896617" NOx_perVeh="29.069819" fuel_perVeh="26571.745904" electricity_perVeh="0"/>
        <edge id="seg_9_before" sampledSeconds="34641.12" CO_abs="3447345.506076" CO2_abs="216388067.526680" HC_abs="21292.716899" PMx_abs="5030.300906" NOx_abs="75785.318200" fuel_abs="69018137.488477" electricity_abs="0"
            CO_normed="6446.983804" CO2_normed="404673.788621" HC_normed="39.820146" PMx_normed="9.407316" NOx_normed="141.728387" fuel_normed="129072.880498" electricity_normed="0"
            traveltime="16.14" CO_perVeh="1606.230161" CO2_perVeh="100822.223897" HC_perVeh="9.920968" PMx_perVeh="2.343780" NOx_perVeh="35.310839" fuel_perVeh="32157.790355" electricity_perVeh="0"/>
    </interval>
</meandata>
