<?xml version="1.0" encoding="UTF-8"?>

<!-- generated on 2022-12-02 19:13:08 by Eclipse SUMO GUI Version 1.14.1
<configuration xmlns:xsi="http://www.w3.org/2001/XMLSchema-instance" xsi:noNamespaceSchemaLocation="http://sumo.dlr.de/xsd/sumoConfiguration.xsd">

    <input>
        <net-file value="./2_1_merge.net.xml"/>
        <route-files value="./improved_2_1_merge.rou.xml"/>
        <additional-files value="./additional.xml"/>
    </input>

    <emissions>
        <phemlight-path value="SUMO_HOME\data\emissions\PHEMlight&gt;"/>
        <device.emissions.probability value="1"/>
        <device.emissions.explicit value="PHEMlight/PC_G_EU4"/>
        <device.emissions.deterministic value="true"/>
    </emissions>

    <traci_server>
        <remote-port value="33939"/>
    </traci_server>

    <gui_only>
        <gui-settings-file value="view.view.xml"/>
        <start value="true"/>
    </gui_only>

</configuration>
-->

<meandata xmlns:xsi="http://www.w3.org/2001/XMLSchema-instance" xsi:noNamespaceSchemaLocation="http://sumo.dlr.de/xsd/meandata_file.xsd">
    <interval begin="0.00" end="3850.00" id="EMISSIONS_DETECTOR_ID_1">
        <edge id="seg_0_after" sampledSeconds="44591.81" CO_abs="2664068.739007" CO2_abs="233599133.536231" HC_abs="17835.529332" PMx_abs="4653.078559" NOx_abs="86279.725567" fuel_abs="74507152.401175" electricity_abs="0"
            CO_normed="4982.154525" CO2_normed="436860.717263" HC_normed="33.354756" PMx_normed="8.701861" NOx_normed="161.354292" fuel_normed="139338.051244" electricity_normed="0"
            traveltime="20.78" CO_perVeh="1241.271351" CO2_perVeh="108841.002386" HC_perVeh="8.310120" PMx_perVeh="2.168012" NOx_perVeh="40.200371" fuel_perVeh="34715.167944" electricity_perVeh="0"/>
        <edge id="seg_0_before" sampledSeconds="56564.29" CO_abs="4555091.862045" CO2_abs="190485867.257229" HC_abs="25220.695328" PMx_abs="3634.269384" NOx_abs="74129.903858" fuel_abs="60757374.372664" electricity_abs="0"
            CO_normed="15488.387913" CO2_normed="647696.927628" HC_normed="85.756319" PMx_normed="12.357374" NOx_normed="252.059177" fuel_normed="206589.419355" electricity_normed="0"
            traveltime="26.14" CO_perVeh="2105.294673" CO2_perVeh="88039.691341" HC_perVeh="11.656625" PMx_perVeh="1.679704" NOx_perVeh="34.261722" fuel_perVeh="28081.140945" electricity_perVeh="0"/>
        <edge id="seg_10_before" sampledSeconds="99254.86" CO_abs="4371663.928607" CO2_abs="410719815.621008" HC_abs="28636.171598" PMx_abs="7236.546676" NOx_abs="141244.267094" fuel_abs="131001270.500320" electricity_abs="0"
            CO_normed="4087.789648" CO2_normed="384049.697724" HC_normed="26.776680" PMx_normed="6.766641" NOx_normed="132.072561" fuel_normed="122494.694494" electricity_normed="0"
            traveltime="47.44" CO_perVeh="2089.299820" CO2_perVeh="196290.668885" HC_perVeh="13.685761" PMx_perVeh="3.458481" NOx_perVeh="67.503273" fuel_perVeh="62607.953240" electricity_perVeh="0"/>
        <edge id="seg_1_after" sampledSeconds="75346.66" CO_abs="7593776.356670" CO2_abs="539198912.608436" HC_abs="48187.767751" PMx_abs="11966.642168" NOx_abs="201065.948347" fuel_abs="171979169.574940" electricity_abs="0"
            CO_normed="7100.673996" CO2_normed="504185.996205" HC_normed="45.058692" PMx_normed="11.189587" NOx_normed="188.009718" fuel_normed="160811.691031" electricity_normed="0"
            traveltime="35.30" CO_perVeh="3557.235758" CO2_perVeh="252582.847127" HC_perVeh="22.573123" PMx_perVeh="5.605665" NOx_perVeh="94.187522" fuel_perVeh="80562.084385" electricity_perVeh="0"/>
        <edge id="seg_1_before" sampledSeconds="84351.43" CO_abs="6837150.695938" CO2_abs="218479517.524840" HC_abs="36197.628260" PMx_abs="4245.094882" NOx_abs="86759.419897" fuel_abs="69687064.454952" electricity_abs="0"
            CO_normed="21310.599572" CO2_normed="680975.119558" HC_normed="112.823776" PMx_normed="13.231465" NOx_normed="270.418971" fuel_normed="217206.434665" electricity_normed="0"
            traveltime="39.05" CO_perVeh="3164.854742" CO2_perVeh="101132.177393" HC_perVeh="16.755552" PMx_perVeh="1.965016" NOx_perVeh="40.160145" fuel_perVeh="32257.506993" electricity_perVeh="0"/>
        <edge id="seg_2_before" sampledSeconds="112739.27" CO_abs="7715201.747527" CO2_abs="285859837.074840" HC_abs="41832.022114" PMx_abs="5492.394370" NOx_abs="110568.463361" fuel_abs="91178437.294530" electricity_abs="0"
            CO_normed="14428.429242" CO2_normed="534595.019984" HC_normed="78.231314" PMx_normed="10.271491" NOx_normed="206.777386" fuel_normed="170515.519096" electricity_normed="0"
            traveltime="52.53" CO_perVeh="3594.768930" CO2_perVeh="133191.599443" HC_perVeh="19.490930" PMx_perVeh="2.559089" NOx_perVeh="51.517522" fuel_perVeh="42483.064506" electricity_perVeh="0"/>
        <edge id="seg_3_before" sampledSeconds="55911.63" CO_abs="2890182.250266" CO2_abs="197868724.694838" HC_abs="17819.603156" PMx_abs="3888.351854" NOx_abs="70054.959144" fuel_abs="63111458.505302" electricity_abs="0"
            CO_normed="5405.016156" CO2_normed="370040.212416" HC_normed="33.324972" PMx_normed="7.271723" NOx_normed="131.011872" fuel_normed="118026.623698" electricity_normed="0"
            traveltime="26.05" CO_perVeh="1346.627440" CO2_perVeh="92193.305180" HC_perVeh="8.302717" PMx_perVeh="1.811706" NOx_perVeh="32.640824" fuel_perVeh="29405.627207" electricity_perVeh="0"/>
        <edge id="seg_4_before" sampledSeconds="39263.29" CO_abs="2850772.646131" CO2_abs="214932537.418386" HC_abs="18254.016035" PMx_abs="4587.234252" NOx_abs="76067.811134" fuel_abs="68553676.147527" electricity_abs="0"
            CO_normed="5331.315078" CO2_normed="401951.758289" HC_normed="34.137381" PMx_normed="8.578724" NOx_normed="142.256686" fuel_normed="128204.277471" electricity_normed="0"
            traveltime="18.29" CO_perVeh="1328.277961" CO2_perVeh="100144.833683" HC_perVeh="8.505206" PMx_perVeh="2.137358" NOx_perVeh="35.442741" fuel_perVeh="31941.634238" electricity_perVeh="0"/>
        <edge id="seg_5_before" sampledSeconds="40050.74" CO_abs="2440286.290487" CO2_abs="205224681.506214" HC_abs="16023.915123" PMx_abs="4174.576810" NOx_abs="70367.614730" fuel_abs="65457414.840664" electricity_abs="0"
            CO_normed="4563.652284" CO2_normed="383796.806973" HC_normed="29.966802" PMx_normed="7.807001" NOx_normed="131.596578" fuel_normed="122413.866715" electricity_normed="0"
            traveltime="18.66" CO_perVeh="1137.000019" CO2_perVeh="95620.119514" HC_perVeh="7.466006" PMx_perVeh="1.945056" NOx_perVeh="32.786309" fuel_perVeh="30498.504294" electricity_perVeh="0"/>
        <edge id="seg_6_before" sampledSeconds="41561.02" CO_abs="3922941.643545" CO2_abs="301460367.136692" HC_abs="25307.236500" PMx_abs="6453.036747" NOx_abs="115744.859869" fuel_abs="96151393.389679" electricity_abs="0"
            CO_normed="7336.410346" CO2_normed="563770.037243" HC_normed="47.327819" PMx_normed="12.068017" NOx_normed="216.457920" fuel_normed="179815.592833" electricity_normed="0"
            traveltime="19.37" CO_perVeh="1828.003565" CO2_perVeh="140473.827051" HC_perVeh="11.792609" PMx_perVeh="3.006972" NOx_perVeh="53.934531" fuel_perVeh="44804.411054" electricity_perVeh="0"/>
        <edge id="seg_7_before" sampledSeconds="46053.86" CO_abs="2725719.357307" CO2_abs="250423576.478462" HC_abs="18234.086774" PMx_abs="4888.068762" NOx_abs="93430.453818" fuel_abs="79873204.964794" electricity_abs="0"
            CO_normed="5097.449188" CO2_normed="468324.610557" HC_normed="34.100110" PMx_normed="9.141323" NOx_normed="174.727082" fuel_normed="149373.266428" electricity_normed="0"
            traveltime="21.46" CO_perVeh="1269.995724" CO2_perVeh="116679.976820" HC_perVeh="8.495817" PMx_perVeh="2.277500" NOx_perVeh="43.532096" fuel_perVeh="37215.360610" electricity_perVeh="0"/>
        <edge id="seg_8_before" sampledSeconds="42931.50" CO_abs="2530343.812415" CO2_abs="210912386.208029" HC_abs="16555.260965" PMx_abs="4253.379236" NOx_abs="75742.756641" fuel_abs="67271318.693584" electricity_abs="0"
            CO_normed="4732.071545" CO2_normed="394433.553428" HC_normed="30.960488" PMx_normed="7.954372" NOx_normed="141.648792" fuel_normed="125806.102492" electricity_normed="0"
            traveltime="20.00" CO_perVeh="1178.962102" CO2_perVeh="98270.325544" HC_perVeh="7.713586" PMx_perVeh="1.981775" NOx_perVeh="35.290793" fuel_perVeh="31343.699186" electricity_perVeh="0"/>
        <edge id="seg_9_before" sampledSeconds="46898.45" CO_abs="2631004.673825" CO2_abs="228213760.195498" HC_abs="17282.922251" PMx_abs="4383.672278" NOx_abs="80899.364074" fuel_abs="72789792.372562" electricity_abs="0"
            CO_normed="4920.320429" CO2_normed="426789.369716" HC_normed="32.321309" PMx_normed="8.198036" NOx_normed="151.292317" fuel_normed="136126.364956" electricity_normed="0"
            traveltime="21.85" CO_perVeh="1225.880231" CO2_perVeh="106333.044506" HC_perVeh="8.052739" PMx_perVeh="2.042511" NOx_perVeh="37.693940" fuel_perVeh="33915.396799" electricity_perVeh="0"/>
    </interval>
</meandata>
