<?xml version="1.0" encoding="UTF-8"?>

<!-- generated on 2022-11-17 16:22:40 by Eclipse SUMO sumo Version 1.14.1
<configuration xmlns:xsi="http://www.w3.org/2001/XMLSchema-instance" xsi:noNamespaceSchemaLocation="http://sumo.dlr.de/xsd/sumoConfiguration.xsd">

    <input>
        <net-file value="./2_1_merge.net.xml"/>
        <route-files value="./improved_2_1_merge.rou.xml"/>
        <additional-files value="./additional.xml"/>
    </input>

    <output>
        <summary-output value="summary.xml"/>
        <tripinfo-output value="tripinfo.xml"/>
    </output>

    <emissions>
        <phemlight-path value="%25SUMO_HOME%25\data\emissions\PHEMlight&gt;"/>
        <device.emissions.probability value="1"/>
        <device.emissions.explicit value="PHEMlight/PC_G_EU4"/>
        <device.emissions.deterministic value="true"/>
    </emissions>

</configuration>
-->

<tripinfos xmlns:xsi="http://www.w3.org/2001/XMLSchema-instance" xsi:noNamespaceSchemaLocation="http://sumo.dlr.de/xsd/tripinfo_file.xsd">
    <tripinfo id="f_3.0" depart="300.00" departLane="seg_10_before_0" departPos="0.00" departSpeed="33.33" departDelay="0.00" arrival="588.00" arrivalLane="seg_1_after_0" arrivalPos="1000.00" arrivalSpeed="14.58" duration="288.00" routeLength="7511.29" waitingTime="0.00" waitingCount="0" stopTime="0.00" timeLoss="15.39" rerouteNo="0" devices="tripinfo_f_3.0 emissions_f_3.0" vType="DEFAULT_VEHTYPE" speedFactor="1.06" vaporized="">
        <emissions CO_abs="27689.946199" CO2_abs="1640322.944827" HC_abs="165.621519" PMx_abs="36.694744" NOx_abs="585.281447" fuel_abs="523190.407440" electricity_abs="0"/>
    </tripinfo>
    <tripinfo id="f_3.3" depart="308.00" departLane="seg_10_before_0" departPos="0.00" departSpeed="33.33" departDelay="0.80" arrival="591.00" arrivalLane="seg_1_after_0" arrivalPos="1000.00" arrivalSpeed="14.66" duration="283.00" routeLength="7511.29" waitingTime="0.00" waitingCount="0" stopTime="0.00" timeLoss="16.46" rerouteNo="0" devices="tripinfo_f_3.3 emissions_f_3.3" vType="DEFAULT_VEHTYPE" speedFactor="1.08" vaporized="">
        <emissions CO_abs="29227.872029" CO2_abs="1655754.218267" HC_abs="172.773739" PMx_abs="37.825196" NOx_abs="597.159355" fuel_abs="528112.083506" electricity_abs="0"/>
    </tripinfo>
    <tripinfo id="f_3.4" depart="310.00" departLane="seg_10_before_1" departPos="0.00" departSpeed="31.51" departDelay="0.40" arrival="605.00" arrivalLane="seg_1_after_1" arrivalPos="1000.00" arrivalSpeed="13.93" duration="295.00" routeLength="7511.29" waitingTime="0.00" waitingCount="0" stopTime="0.00" timeLoss="14.76" rerouteNo="0" devices="tripinfo_f_3.4 emissions_f_3.4" vType="DEFAULT_VEHTYPE" speedFactor="1.03" vaporized="">
        <emissions CO_abs="25230.042740" CO2_abs="1599152.387119" HC_abs="153.446475" PMx_abs="34.794732" NOx_abs="566.457820" fuel_abs="510058.709791" electricity_abs="0"/>
    </tripinfo>
    <tripinfo id="f_3.2" depart="305.00" departLane="seg_10_before_2" departPos="0.00" departSpeed="33.33" departDelay="0.20" arrival="606.00" arrivalLane="seg_1_after_0" arrivalPos="1000.00" arrivalSpeed="13.70" duration="301.00" routeLength="7511.29" waitingTime="0.00" waitingCount="0" stopTime="0.00" timeLoss="14.56" rerouteNo="0" devices="tripinfo_f_3.2 emissions_f_3.2" vType="DEFAULT_VEHTYPE" speedFactor="1.01" vaporized="">
        <emissions CO_abs="23636.976137" CO2_abs="1566813.348968" HC_abs="145.421499" PMx_abs="33.440672" NOx_abs="551.113314" fuel_abs="499744.084370" electricity_abs="0"/>
    </tripinfo>
    <tripinfo id="f_3.10" depart="324.00" departLane="seg_10_before_1" departPos="0.00" departSpeed="33.33" departDelay="0.00" arrival="607.00" arrivalLane="seg_1_after_1" arrivalPos="1000.00" arrivalSpeed="14.98" duration="283.00" routeLength="7511.29" waitingTime="0.00" waitingCount="0" stopTime="0.00" timeLoss="17.94" rerouteNo="0" devices="tripinfo_f_3.10 emissions_f_3.10" vType="DEFAULT_VEHTYPE" speedFactor="1.09" vaporized="">
        <emissions CO_abs="29611.553827" CO2_abs="1660370.456358" HC_abs="174.917873" PMx_abs="38.198829" NOx_abs="600.915138" fuel_abs="529584.387314" electricity_abs="0"/>
    </tripinfo>
    <tripinfo id="f_3.6" depart="315.00" departLane="seg_10_before_1" departPos="0.00" departSpeed="33.33" departDelay="0.60" arrival="608.00" arrivalLane="seg_1_after_0" arrivalPos="1000.00" arrivalSpeed="14.39" duration="293.00" routeLength="7511.29" waitingTime="0.00" waitingCount="0" stopTime="0.00" timeLoss="16.95" rerouteNo="0" devices="tripinfo_f_3.6 emissions_f_3.6" vType="DEFAULT_VEHTYPE" speedFactor="1.05" vaporized="">
        <emissions CO_abs="25819.380281" CO2_abs="1605865.539686" HC_abs="156.099155" PMx_abs="35.182032" NOx_abs="572.646396" fuel_abs="512199.703103" electricity_abs="0"/>
    </tripinfo>
    <tripinfo id="f_3.13" depart="332.00" departLane="seg_10_before_0" departPos="0.00" departSpeed="31.41" departDelay="0.80" arrival="611.00" arrivalLane="seg_1_after_0" arrivalPos="1000.00" arrivalSpeed="15.30" duration="279.00" routeLength="7511.29" waitingTime="0.00" waitingCount="0" stopTime="0.00" timeLoss="21.63" rerouteNo="0" devices="tripinfo_f_3.13 emissions_f_3.13" vType="DEFAULT_VEHTYPE" speedFactor="1.12" vaporized="">
        <emissions CO_abs="31204.894767" CO2_abs="1696667.099242" HC_abs="182.989751" PMx_abs="39.525277" NOx_abs="618.332314" fuel_abs="541161.276108" electricity_abs="0"/>
    </tripinfo>
    <tripinfo id="f_3.19" depart="346.00" departLane="seg_10_before_2" departPos="0.00" departSpeed="32.85" departDelay="0.40" arrival="618.00" arrivalLane="seg_1_after_0" arrivalPos="1000.00" arrivalSpeed="15.89" duration="272.00" routeLength="7511.29" waitingTime="0.00" waitingCount="0" stopTime="0.00" timeLoss="22.19" rerouteNo="0" devices="tripinfo_f_3.19 emissions_f_3.19" vType="DEFAULT_VEHTYPE" speedFactor="1.16" vaporized="">
        <emissions CO_abs="34001.028492" CO2_abs="1736853.882257" HC_abs="197.336012" PMx_abs="41.759657" NOx_abs="639.988464" fuel_abs="553979.019216" electricity_abs="0"/>
    </tripinfo>
    <tripinfo id="f_3.12" depart="329.00" departLane="seg_10_before_2" departPos="0.00" departSpeed="30.96" departDelay="0.20" arrival="620.00" arrivalLane="seg_1_after_0" arrivalPos="1000.00" arrivalSpeed="14.22" duration="291.00" routeLength="7511.29" waitingTime="0.00" waitingCount="0" stopTime="0.00" timeLoss="15.07" rerouteNo="0" devices="tripinfo_f_3.12 emissions_f_3.12" vType="DEFAULT_VEHTYPE" speedFactor="1.05" vaporized="">
        <emissions CO_abs="26831.111909" CO2_abs="1625409.780494" HC_abs="161.478614" PMx_abs="36.134432" NOx_abs="582.303916" fuel_abs="518433.415954" electricity_abs="0"/>
    </tripinfo>
    <tripinfo id="f_3.11" depart="327.00" departLane="seg_10_before_1" departPos="0.00" departSpeed="27.73" departDelay="0.60" arrival="625.00" arrivalLane="seg_1_after_1" arrivalPos="1000.00" arrivalSpeed="14.03" duration="298.00" routeLength="7511.29" waitingTime="0.00" waitingCount="0" stopTime="0.00" timeLoss="16.31" rerouteNo="0" devices="tripinfo_f_3.11 emissions_f_3.11" vType="DEFAULT_VEHTYPE" speedFactor="1.03" vaporized="">
        <emissions CO_abs="25567.277879" CO2_abs="1617249.023363" HC_abs="155.742663" PMx_abs="35.369754" NOx_abs="577.819357" fuel_abs="515830.341259" electricity_abs="0"/>
    </tripinfo>
    <tripinfo id="f_3.1" depart="303.00" departLane="seg_10_before_1" departPos="0.00" departSpeed="33.33" departDelay="0.60" arrival="626.00" arrivalLane="seg_1_after_0" arrivalPos="1000.00" arrivalSpeed="12.68" duration="323.00" routeLength="7511.29" waitingTime="0.00" waitingCount="0" stopTime="0.00" timeLoss="15.02" rerouteNo="0" devices="tripinfo_f_3.1 emissions_f_3.1" vType="DEFAULT_VEHTYPE" speedFactor="0.94" vaporized="">
        <emissions CO_abs="18186.131942" CO2_abs="1486130.715225" HC_abs="118.754817" PMx_abs="29.042158" NOx_abs="512.196699" fuel_abs="474009.875881" electricity_abs="0"/>
    </tripinfo>
    <tripinfo id="f_3.14" depart="334.00" departLane="seg_10_before_1" departPos="0.00" departSpeed="33.33" departDelay="0.40" arrival="640.00" arrivalLane="seg_1_after_0" arrivalPos="1000.00" arrivalSpeed="13.45" duration="306.00" routeLength="7511.29" waitingTime="0.00" waitingCount="0" stopTime="0.00" timeLoss="15.06" rerouteNo="0" devices="tripinfo_f_3.14 emissions_f_3.14" vType="DEFAULT_VEHTYPE" speedFactor="0.99" vaporized="">
        <emissions CO_abs="21913.482414" CO2_abs="1547470.029416" HC_abs="136.918819" PMx_abs="32.060150" NOx_abs="539.469849" fuel_abs="493574.505026" electricity_abs="0"/>
    </tripinfo>
    <tripinfo id="f_3.30" depart="372.00" departLane="seg_10_before_2" departPos="0.00" departSpeed="33.33" departDelay="0.00" arrival="641.00" arrivalLane="seg_1_after_1" arrivalPos="1000.00" arrivalSpeed="16.15" duration="269.00" routeLength="7511.29" waitingTime="0.00" waitingCount="0" stopTime="0.00" timeLoss="23.41" rerouteNo="0" devices="tripinfo_f_3.30 emissions_f_3.30" vType="DEFAULT_VEHTYPE" speedFactor="1.18" vaporized="">
        <emissions CO_abs="33285.561723" CO2_abs="1713242.237396" HC_abs="193.091871" PMx_abs="41.034012" NOx_abs="625.804012" fuel_abs="546448.277963" electricity_abs="0"/>
    </tripinfo>
    <tripinfo id="f_3.8" depart="320.00" departLane="seg_10_before_2" departPos="0.00" departSpeed="33.33" departDelay="0.80" arrival="643.00" arrivalLane="seg_1_after_0" arrivalPos="1000.00" arrivalSpeed="12.93" duration="323.00" routeLength="7511.29" waitingTime="0.00" waitingCount="0" stopTime="0.00" timeLoss="15.42" rerouteNo="0" devices="tripinfo_f_3.8 emissions_f_3.8" vType="DEFAULT_VEHTYPE" speedFactor="0.94" vaporized="">
        <emissions CO_abs="18047.855827" CO2_abs="1490971.784552" HC_abs="118.269324" PMx_abs="28.997521" NOx_abs="512.995576" fuel_abs="475553.995097" electricity_abs="0"/>
    </tripinfo>
    <tripinfo id="f_3.28" depart="368.00" departLane="seg_10_before_2" departPos="0.00" departSpeed="33.33" departDelay="0.80" arrival="645.00" arrivalLane="seg_1_after_1" arrivalPos="1000.00" arrivalSpeed="15.59" duration="277.00" routeLength="7511.29" waitingTime="0.00" waitingCount="0" stopTime="0.00" timeLoss="21.48" rerouteNo="0" devices="tripinfo_f_3.28 emissions_f_3.28" vType="DEFAULT_VEHTYPE" speedFactor="1.13" vaporized="">
        <emissions CO_abs="31597.377845" CO2_abs="1675737.209396" HC_abs="184.626813" PMx_abs="39.491374" NOx_abs="607.383423" fuel_abs="534486.013282" electricity_abs="0"/>
    </tripinfo>
    <tripinfo id="f_3.20" depart="348.00" departLane="seg_10_before_1" departPos="0.00" departSpeed="31.33" departDelay="0.00" arrival="648.00" arrivalLane="seg_1_after_0" arrivalPos="1000.00" arrivalSpeed="13.89" duration="300.00" routeLength="7511.29" waitingTime="0.00" waitingCount="0" stopTime="0.00" timeLoss="16.09" rerouteNo="0" devices="tripinfo_f_3.20 emissions_f_3.20" vType="DEFAULT_VEHTYPE" speedFactor="1.02" vaporized="">
        <emissions CO_abs="24286.790357" CO2_abs="1590617.837901" HC_abs="148.769247" PMx_abs="34.101149" NOx_abs="563.785334" fuel_abs="507336.369591" electricity_abs="0"/>
    </tripinfo>
    <tripinfo id="f_3.21" depart="351.00" departLane="seg_10_before_1" departPos="0.00" departSpeed="31.50" departDelay="0.60" arrival="655.00" arrivalLane="seg_1_after_0" arrivalPos="1000.00" arrivalSpeed="13.73" duration="304.00" routeLength="7511.29" waitingTime="0.00" waitingCount="0" stopTime="0.00" timeLoss="18.31" rerouteNo="0" devices="tripinfo_f_3.21 emissions_f_3.21" vType="DEFAULT_VEHTYPE" speedFactor="1.01" vaporized="">
        <emissions CO_abs="23249.289825" CO2_abs="1556950.476006" HC_abs="143.420026" PMx_abs="33.169570" NOx_abs="551.711789" fuel_abs="496597.844097" electricity_abs="0"/>
    </tripinfo>
    <tripinfo id="f_3.7" depart="317.00" departLane="seg_10_before_1" departPos="0.00" departSpeed="33.33" departDelay="0.20" arrival="659.00" arrivalLane="seg_1_after_0" arrivalPos="1000.00" arrivalSpeed="12.27" duration="342.00" routeLength="7511.29" waitingTime="0.00" waitingCount="0" stopTime="0.00" timeLoss="16.07" rerouteNo="0" devices="tripinfo_f_3.7 emissions_f_3.7" vType="DEFAULT_VEHTYPE" speedFactor="0.89" vaporized="">
        <emissions CO_abs="14330.635840" CO2_abs="1428318.406013" HC_abs="99.775564" PMx_abs="25.732771" NOx_abs="483.317925" fuel_abs="455570.480139" electricity_abs="0"/>
    </tripinfo>
    <tripinfo id="f_3.15" depart="336.00" departLane="seg_10_before_1" departPos="0.00" departSpeed="33.29" departDelay="0.00" arrival="667.00" arrivalLane="seg_1_after_0" arrivalPos="1000.00" arrivalSpeed="12.49" duration="331.00" routeLength="7511.29" waitingTime="0.00" waitingCount="0" stopTime="0.00" timeLoss="19.25" rerouteNo="0" devices="tripinfo_f_3.15 emissions_f_3.15" vType="DEFAULT_VEHTYPE" speedFactor="0.93" vaporized="">
        <emissions CO_abs="15839.152519" CO2_abs="1440131.480133" HC_abs="106.541292" PMx_abs="27.025340" NOx_abs="491.872587" fuel_abs="459338.054332" electricity_abs="0"/>
    </tripinfo>
    <tripinfo id="f_3.17" depart="341.00" departLane="seg_10_before_0" departPos="0.00" departSpeed="27.91" departDelay="0.20" arrival="668.00" arrivalLane="seg_1_after_1" arrivalPos="1000.00" arrivalSpeed="12.70" duration="327.00" routeLength="7511.29" waitingTime="0.00" waitingCount="0" stopTime="0.00" timeLoss="20.91" rerouteNo="0" devices="tripinfo_f_3.17 emissions_f_3.17" vType="DEFAULT_VEHTYPE" speedFactor="0.94" vaporized="">
        <emissions CO_abs="17473.706761" CO2_abs="1488325.010099" HC_abs="115.304065" PMx_abs="28.642800" NOx_abs="515.150450" fuel_abs="474709.384466" electricity_abs="0"/>
    </tripinfo>
    <tripinfo id="f_3.18" depart="344.00" departLane="seg_10_before_2" departPos="0.00" departSpeed="33.33" departDelay="0.80" arrival="671.00" arrivalLane="seg_1_after_0" arrivalPos="1000.00" arrivalSpeed="12.79" duration="327.00" routeLength="7511.29" waitingTime="0.00" waitingCount="0" stopTime="0.00" timeLoss="18.18" rerouteNo="0" devices="tripinfo_f_3.18 emissions_f_3.18" vType="DEFAULT_VEHTYPE" speedFactor="0.94" vaporized="">
        <emissions CO_abs="16831.438964" CO2_abs="1455648.841137" HC_abs="111.332546" PMx_abs="27.618330" NOx_abs="495.938264" fuel_abs="464287.798756" electricity_abs="0"/>
    </tripinfo>
    <tripinfo id="f_3.37" depart="389.00" departLane="seg_10_before_2" departPos="0.00" departSpeed="33.33" departDelay="0.20" arrival="673.00" arrivalLane="seg_1_after_0" arrivalPos="1000.00" arrivalSpeed="14.06" duration="284.00" routeLength="7511.29" waitingTime="0.00" waitingCount="0" stopTime="0.00" timeLoss="38.70" rerouteNo="0" devices="tripinfo_f_3.37 emissions_f_3.37" vType="DEFAULT_VEHTYPE" speedFactor="1.18" vaporized="">
        <emissions CO_abs="33643.528758" CO2_abs="1700112.893817" HC_abs="195.087638" PMx_abs="40.692005" NOx_abs="630.147250" fuel_abs="542260.516382" electricity_abs="0"/>
    </tripinfo>
    <tripinfo id="f_3.5" depart="312.00" departLane="seg_10_before_2" departPos="0.00" departSpeed="33.33" departDelay="0.00" arrival="675.00" arrivalLane="seg_1_after_1" arrivalPos="1000.00" arrivalSpeed="11.23" duration="363.00" routeLength="7511.29" waitingTime="0.00" waitingCount="0" stopTime="0.00" timeLoss="14.56" rerouteNo="0" devices="tripinfo_f_3.5 emissions_f_3.5" vType="DEFAULT_VEHTYPE" speedFactor="0.83" vaporized="">
        <emissions CO_abs="11325.259933" CO2_abs="1397139.157591" HC_abs="85.433129" PMx_abs="23.146723" NOx_abs="466.652242" fuel_abs="445625.811276" electricity_abs="0"/>
    </tripinfo>
    <tripinfo id="f_3.9" depart="322.00" departLane="seg_10_before_0" departPos="0.00" departSpeed="33.33" departDelay="0.40" arrival="676.00" arrivalLane="seg_1_after_0" arrivalPos="1000.00" arrivalSpeed="11.85" duration="354.00" routeLength="7511.29" waitingTime="0.00" waitingCount="0" stopTime="0.00" timeLoss="16.81" rerouteNo="0" devices="tripinfo_f_3.9 emissions_f_3.9" vType="DEFAULT_VEHTYPE" speedFactor="0.86" vaporized="">
        <emissions CO_abs="13363.634628" CO2_abs="1424211.666579" HC_abs="95.609466" PMx_abs="25.042350" NOx_abs="483.969523" fuel_abs="454260.342837" electricity_abs="0"/>
    </tripinfo>
    <tripinfo id="f_3.33" depart="380.00" departLane="seg_10_before_2" departPos="0.00" departSpeed="33.33" departDelay="0.80" arrival="677.00" arrivalLane="seg_1_after_1" arrivalPos="1000.00" arrivalSpeed="12.17" duration="297.00" routeLength="7511.29" waitingTime="0.00" waitingCount="0" stopTime="0.00" timeLoss="50.13" rerouteNo="0" devices="tripinfo_f_3.33 emissions_f_3.33" vType="DEFAULT_VEHTYPE" speedFactor="1.17" vaporized="">
        <emissions CO_abs="31626.679541" CO2_abs="1630189.655456" HC_abs="184.878200" PMx_abs="38.476201" NOx_abs="605.531157" fuel_abs="519958.114507" electricity_abs="0"/>
    </tripinfo>
    <tripinfo id="f_3.22" depart="353.00" departLane="seg_10_before_2" departPos="0.00" departSpeed="33.33" departDelay="0.20" arrival="678.00" arrivalLane="seg_1_after_0" arrivalPos="1000.00" arrivalSpeed="12.90" duration="325.00" routeLength="7511.29" waitingTime="0.00" waitingCount="0" stopTime="0.00" timeLoss="28.81" rerouteNo="0" devices="tripinfo_f_3.22 emissions_f_3.22" vType="DEFAULT_VEHTYPE" speedFactor="0.97" vaporized="">
        <emissions CO_abs="20515.572249" CO2_abs="1488292.071510" HC_abs="129.961392" PMx_abs="30.403838" NOx_abs="522.259788" fuel_abs="474699.223543" electricity_abs="0"/>
    </tripinfo>
    <tripinfo id="f_3.31" depart="375.00" departLane="seg_10_before_0" departPos="0.00" departSpeed="29.86" departDelay="0.60" arrival="679.00" arrivalLane="seg_1_after_1" arrivalPos="1000.00" arrivalSpeed="12.86" duration="304.00" routeLength="7511.29" waitingTime="0.00" waitingCount="0" stopTime="0.00" timeLoss="53.17" rerouteNo="0" devices="tripinfo_f_3.31 emissions_f_3.31" vType="DEFAULT_VEHTYPE" speedFactor="1.15" vaporized="">
        <emissions CO_abs="28085.816531" CO2_abs="1588220.668288" HC_abs="167.606741" PMx_abs="36.238885" NOx_abs="587.939537" fuel_abs="506571.133559" electricity_abs="0"/>
    </tripinfo>
    <tripinfo id="f_3.38" depart="392.00" departLane="seg_10_before_0" departPos="0.00" departSpeed="27.58" departDelay="0.80" arrival="680.00" arrivalLane="seg_1_after_0" arrivalPos="1000.00" arrivalSpeed="13.12" duration="288.00" routeLength="7511.29" waitingTime="0.00" waitingCount="0" stopTime="0.00" timeLoss="25.51" rerouteNo="0" devices="tripinfo_f_3.38 emissions_f_3.38" vType="DEFAULT_VEHTYPE" speedFactor="1.10" vaporized="">
        <emissions CO_abs="30916.496541" CO2_abs="1721555.146138" HC_abs="182.942934" PMx_abs="39.786270" NOx_abs="630.473448" fuel_abs="549099.120635" electricity_abs="0"/>
    </tripinfo>
    <tripinfo id="f_3.16" depart="339.00" departLane="seg_10_before_1" departPos="0.00" departSpeed="33.33" departDelay="0.60" arrival="683.00" arrivalLane="seg_1_after_0" arrivalPos="1000.00" arrivalSpeed="11.89" duration="344.00" routeLength="7511.29" waitingTime="0.00" waitingCount="0" stopTime="0.00" timeLoss="14.76" rerouteNo="0" devices="tripinfo_f_3.16 emissions_f_3.16" vType="DEFAULT_VEHTYPE" speedFactor="0.88" vaporized="">
        <emissions CO_abs="13992.271992" CO2_abs="1433776.196565" HC_abs="98.417559" PMx_abs="25.549746" NOx_abs="484.841934" fuel_abs="457311.262936" electricity_abs="0"/>
    </tripinfo>
    <tripinfo id="f_3.32" depart="377.00" departLane="seg_10_before_1" departPos="0.00" departSpeed="32.78" departDelay="0.20" arrival="684.00" arrivalLane="seg_1_after_1" arrivalPos="1000.00" arrivalSpeed="13.59" duration="307.00" routeLength="7511.29" waitingTime="0.00" waitingCount="0" stopTime="0.00" timeLoss="18.72" rerouteNo="0" devices="tripinfo_f_3.32 emissions_f_3.32" vType="DEFAULT_VEHTYPE" speedFactor="1.01" vaporized="">
        <emissions CO_abs="22931.730693" CO2_abs="1549182.567922" HC_abs="141.880799" PMx_abs="32.745998" NOx_abs="546.141455" fuel_abs="494120.510036" electricity_abs="0"/>
    </tripinfo>
    <tripinfo id="f_3.27" depart="365.00" departLane="seg_10_before_0" departPos="0.00" departSpeed="30.95" departDelay="0.20" arrival="685.00" arrivalLane="seg_1_after_0" arrivalPos="1000.00" arrivalSpeed="13.09" duration="320.00" routeLength="7511.29" waitingTime="0.00" waitingCount="0" stopTime="0.00" timeLoss="15.46" rerouteNo="0" devices="tripinfo_f_3.27 emissions_f_3.27" vType="DEFAULT_VEHTYPE" speedFactor="0.95" vaporized="">
        <emissions CO_abs="18756.692429" CO2_abs="1502062.860670" HC_abs="121.945579" PMx_abs="29.692035" NOx_abs="521.275900" fuel_abs="479091.288941" electricity_abs="0"/>
    </tripinfo>
    <tripinfo id="f_3.35" depart="384.00" departLane="seg_10_before_2" departPos="0.00" departSpeed="33.33" departDelay="0.00" arrival="686.00" arrivalLane="seg_1_after_1" arrivalPos="1000.00" arrivalSpeed="13.86" duration="302.00" routeLength="7511.29" waitingTime="0.00" waitingCount="0" stopTime="0.00" timeLoss="17.96" rerouteNo="0" devices="tripinfo_f_3.35 emissions_f_3.35" vType="DEFAULT_VEHTYPE" speedFactor="1.02" vaporized="">
        <emissions CO_abs="23518.946158" CO2_abs="1558120.524351" HC_abs="144.884387" PMx_abs="33.354519" NOx_abs="552.637376" fuel_abs="496971.049510" electricity_abs="0"/>
    </tripinfo>
    <tripinfo id="f_3.34" depart="382.00" departLane="seg_10_before_1" departPos="0.00" departSpeed="29.33" departDelay="0.40" arrival="690.00" arrivalLane="seg_1_after_0" arrivalPos="1000.00" arrivalSpeed="13.57" duration="308.00" routeLength="7511.29" waitingTime="0.00" waitingCount="0" stopTime="0.00" timeLoss="17.52" rerouteNo="0" devices="tripinfo_f_3.34 emissions_f_3.34" vType="DEFAULT_VEHTYPE" speedFactor="0.99" vaporized="">
        <emissions CO_abs="22067.976517" CO2_abs="1554424.265599" HC_abs="137.973097" PMx_abs="32.358739" NOx_abs="548.958794" fuel_abs="495792.017559" electricity_abs="0"/>
    </tripinfo>
    <tripinfo id="f_3.23" depart="356.00" departLane="seg_10_before_0" departPos="0.00" departSpeed="28.70" departDelay="0.80" arrival="695.00" arrivalLane="seg_1_after_0" arrivalPos="1000.00" arrivalSpeed="11.99" duration="339.00" routeLength="7511.29" waitingTime="0.00" waitingCount="0" stopTime="0.00" timeLoss="14.02" rerouteNo="0" devices="tripinfo_f_3.23 emissions_f_3.23" vType="DEFAULT_VEHTYPE" speedFactor="0.89" vaporized="">
        <emissions CO_abs="15067.617937" CO2_abs="1450041.576050" HC_abs="104.015203" PMx_abs="26.668460" NOx_abs="493.762037" fuel_abs="462498.984943" electricity_abs="0"/>
    </tripinfo>
    <tripinfo id="f_3.26" depart="363.00" departLane="seg_10_before_0" departPos="0.00" departSpeed="33.04" departDelay="0.60" arrival="695.00" arrivalLane="seg_1_after_1" arrivalPos="1000.00" arrivalSpeed="12.72" duration="332.00" routeLength="7511.29" waitingTime="0.00" waitingCount="0" stopTime="0.00" timeLoss="17.78" rerouteNo="0" devices="tripinfo_f_3.26 emissions_f_3.26" vType="DEFAULT_VEHTYPE" speedFactor="0.92" vaporized="">
        <emissions CO_abs="16341.838655" CO2_abs="1470140.129385" HC_abs="109.965678" PMx_abs="27.632450" NOx_abs="505.156887" fuel_abs="468909.406079" electricity_abs="0"/>
    </tripinfo>
    <tripinfo id="f_3.40" depart="396.00" departLane="seg_10_before_1" departPos="0.00" departSpeed="31.64" departDelay="0.00" arrival="697.00" arrivalLane="seg_1_after_1" arrivalPos="1000.00" arrivalSpeed="14.08" duration="301.00" routeLength="7511.29" waitingTime="0.00" waitingCount="0" stopTime="0.00" timeLoss="20.88" rerouteNo="0" devices="tripinfo_f_3.40 emissions_f_3.40" vType="DEFAULT_VEHTYPE" speedFactor="1.03" vaporized="">
        <emissions CO_abs="24655.459214" CO2_abs="1568813.858365" HC_abs="150.307863" PMx_abs="34.047998" NOx_abs="558.540635" fuel_abs="500381.939442" electricity_abs="0"/>
    </tripinfo>
    <tripinfo id="f_3.29" depart="370.00" departLane="seg_10_before_1" departPos="0.00" departSpeed="31.61" departDelay="0.40" arrival="699.00" arrivalLane="seg_1_after_0" arrivalPos="1000.00" arrivalSpeed="12.70" duration="329.00" routeLength="7511.29" waitingTime="0.00" waitingCount="0" stopTime="0.00" timeLoss="18.55" rerouteNo="0" devices="tripinfo_f_3.29 emissions_f_3.29" vType="DEFAULT_VEHTYPE" speedFactor="0.93" vaporized="">
        <emissions CO_abs="16584.061476" CO2_abs="1465069.408855" HC_abs="110.973026" PMx_abs="27.784991" NOx_abs="501.923170" fuel_abs="467292.204742" electricity_abs="0"/>
    </tripinfo>
    <tripinfo id="f_3.45" depart="408.00" departLane="seg_10_before_1" departPos="0.00" departSpeed="33.33" departDelay="0.00" arrival="699.00" arrivalLane="seg_1_after_1" arrivalPos="1000.00" arrivalSpeed="14.08" duration="291.00" routeLength="7511.29" waitingTime="0.00" waitingCount="0" stopTime="0.00" timeLoss="25.64" rerouteNo="0" devices="tripinfo_f_3.45 emissions_f_3.45" vType="DEFAULT_VEHTYPE" speedFactor="1.09" vaporized="">
        <emissions CO_abs="29160.105518" CO2_abs="1640858.719821" HC_abs="173.272036" PMx_abs="37.704601" NOx_abs="593.427202" fuel_abs="523361.175415" electricity_abs="0"/>
    </tripinfo>
    <tripinfo id="f_3.51" depart="423.00" departLane="seg_10_before_2" departPos="0.00" departSpeed="33.15" departDelay="0.60" arrival="701.00" arrivalLane="seg_1_after_1" arrivalPos="1000.00" arrivalSpeed="14.63" duration="278.00" routeLength="7511.29" waitingTime="0.00" waitingCount="0" stopTime="0.00" timeLoss="30.46" rerouteNo="0" devices="tripinfo_f_3.51 emissions_f_3.51" vType="DEFAULT_VEHTYPE" speedFactor="1.17" vaporized="">
        <emissions CO_abs="35049.931832" CO2_abs="1730945.480245" HC_abs="202.514903" PMx_abs="42.202536" NOx_abs="641.793967" fuel_abs="552094.781850" electricity_abs="0"/>
    </tripinfo>
    <tripinfo id="f_3.43" depart="404.00" departLane="seg_10_before_1" departPos="0.00" departSpeed="33.33" departDelay="0.80" arrival="703.00" arrivalLane="seg_1_after_0" arrivalPos="1000.00" arrivalSpeed="14.19" duration="299.00" routeLength="7511.29" waitingTime="0.00" waitingCount="0" stopTime="0.00" timeLoss="20.30" rerouteNo="0" devices="tripinfo_f_3.43 emissions_f_3.43" vType="DEFAULT_VEHTYPE" speedFactor="1.04" vaporized="">
        <emissions CO_abs="24740.112339" CO2_abs="1571474.619410" HC_abs="150.523616" PMx_abs="34.162383" NOx_abs="561.106873" fuel_abs="501230.404889" electricity_abs="0"/>
    </tripinfo>
    <tripinfo id="f_3.25" depart="360.00" departLane="seg_10_before_2" departPos="0.00" departSpeed="32.10" departDelay="0.00" arrival="705.00" arrivalLane="seg_1_after_0" arrivalPos="1000.00" arrivalSpeed="12.10" duration="345.00" routeLength="7511.29" waitingTime="0.00" waitingCount="0" stopTime="0.00" timeLoss="13.74" rerouteNo="0" devices="tripinfo_f_3.25 emissions_f_3.25" vType="DEFAULT_VEHTYPE" speedFactor="0.87" vaporized="">
        <emissions CO_abs="13807.171153" CO2_abs="1436954.541259" HC_abs="97.774820" PMx_abs="25.486851" NOx_abs="485.334671" fuel_abs="458325.013344" electricity_abs="0"/>
    </tripinfo>
    <tripinfo id="f_3.42" depart="401.00" departLane="seg_10_before_0" departPos="0.00" departSpeed="31.27" departDelay="0.20" arrival="705.00" arrivalLane="seg_1_after_1" arrivalPos="1000.00" arrivalSpeed="15.02" duration="304.00" routeLength="7511.29" waitingTime="0.00" waitingCount="0" stopTime="0.00" timeLoss="39.32" rerouteNo="0" devices="tripinfo_f_3.42 emissions_f_3.42" vType="DEFAULT_VEHTYPE" speedFactor="1.09" vaporized="">
        <emissions CO_abs="25727.770767" CO2_abs="1616559.788477" HC_abs="156.565574" PMx_abs="35.426361" NOx_abs="584.855618" fuel_abs="515610.063306" electricity_abs="0"/>
    </tripinfo>
    <tripinfo id="f_3.36" depart="387.00" departLane="seg_10_before_0" departPos="0.00" departSpeed="29.76" departDelay="0.60" arrival="707.00" arrivalLane="seg_1_after_0" arrivalPos="1000.00" arrivalSpeed="13.04" duration="320.00" routeLength="7511.29" waitingTime="0.00" waitingCount="0" stopTime="0.00" timeLoss="22.87" rerouteNo="0" devices="tripinfo_f_3.36 emissions_f_3.36" vType="DEFAULT_VEHTYPE" speedFactor="0.97" vaporized="">
        <emissions CO_abs="20636.658019" CO2_abs="1536819.382319" HC_abs="131.357310" PMx_abs="31.146668" NOx_abs="539.887830" fuel_abs="490176.988498" electricity_abs="0"/>
    </tripinfo>
    <tripinfo id="f_3.44" depart="406.00" departLane="seg_10_before_0" departPos="0.00" departSpeed="33.32" departDelay="0.40" arrival="707.00" arrivalLane="seg_1_after_1" arrivalPos="1000.00" arrivalSpeed="14.19" duration="301.00" routeLength="7511.29" waitingTime="0.00" waitingCount="0" stopTime="0.00" timeLoss="23.59" rerouteNo="0" devices="tripinfo_f_3.44 emissions_f_3.44" vType="DEFAULT_VEHTYPE" speedFactor="1.04" vaporized="">
        <emissions CO_abs="25484.000268" CO2_abs="1563562.472333" HC_abs="154.088924" PMx_abs="34.474804" NOx_abs="557.787957" fuel_abs="498707.114350" electricity_abs="0"/>
    </tripinfo>
    <tripinfo id="f_3.53" depart="428.00" departLane="seg_10_before_2" departPos="0.00" departSpeed="33.33" departDelay="0.80" arrival="713.00" arrivalLane="seg_1_after_0" arrivalPos="1000.00" arrivalSpeed="15.20" duration="285.00" routeLength="7511.29" waitingTime="0.00" waitingCount="0" stopTime="0.00" timeLoss="21.33" rerouteNo="0" devices="tripinfo_f_3.53 emissions_f_3.53" vType="DEFAULT_VEHTYPE" speedFactor="1.10" vaporized="">
        <emissions CO_abs="29471.293994" CO2_abs="1653187.143534" HC_abs="174.634284" PMx_abs="38.079415" NOx_abs="599.494406" fuel_abs="527293.139933" electricity_abs="0"/>
    </tripinfo>
    <tripinfo id="f_3.57" depart="437.00" departLane="seg_10_before_1" departPos="0.00" departSpeed="33.23" departDelay="0.20" arrival="715.00" arrivalLane="seg_1_after_1" arrivalPos="1000.00" arrivalSpeed="15.69" duration="278.00" routeLength="7511.29" waitingTime="0.00" waitingCount="0" stopTime="0.00" timeLoss="24.81" rerouteNo="0" devices="tripinfo_f_3.57 emissions_f_3.57" vType="DEFAULT_VEHTYPE" speedFactor="1.14" vaporized="">
        <emissions CO_abs="33362.428187" CO2_abs="1724838.064800" HC_abs="194.308176" PMx_abs="41.260568" NOx_abs="635.472452" fuel_abs="550146.504963" electricity_abs="0"/>
    </tripinfo>